 Gaussian 16, Revision C.01,
 Gaussian 16:  ES64L-G16RevC.01  3-Jul-2019

 ----------------------------------------------------------------------
 #p td=(50-50,nstates=3) cam-b3lyp/aug-cc-pvdz scrf=(iefpcm,solvent=wat
 er)
 ----------------------------------------------------------------------

 -----------------------
 ES optimization - water
 -----------------------
 Symbolic Z-matrix:
 Charge =  0 Multiplicity = 1

                         Standard orientation:
 ---------------------------------------------------------------------
 Center     Atomic      Atomic             Coordinates (Angstroms)
 Number     Number       Type             X           Y           Z
 ---------------------------------------------------------------------
      1          8           0        4.567055    2.738123    0.311639
      2          6           0        3.737508    1.817731    0.210063
      3          6           0        4.172967    0.400972    0.060620
      4          6           0        5.542562    0.100404    0.034785
      5          6           0        5.977679   -1.208857   -0.103876
      6          6           0        5.040886   -2.245206   -0.219875
      7          6           0        3.683277   -1.966540   -0.196384
      8          6           0        3.228422   -0.643420   -0.055934
      9          6           0        1.797651   -0.337748   -0.029525
     10          7           0        0.903788   -1.291289   -0.138665
     11          6           0       -0.416386   -0.962799   -0.109349
     12          6           0       -1.424212   -1.944919   -0.225065
     13          6           0       -2.756098   -1.612898   -0.193296
     14          6           0       -3.183041   -0.253154   -0.042581
     15          7           0       -4.505003    0.072696   -0.008010
     16          6           0       -4.961585    1.446395    0.241756
     17          6           0       -5.083019    2.292830   -1.029149
     18          6           0       -5.564711   -0.923285   -0.221398
     19          6           0       -6.008551   -1.631056    1.062139
     20          6           0       -2.175015    0.739463    0.072140
     21          6           0       -0.847585    0.374789    0.039592
     22          8           0        0.091191    1.365041    0.148998
     23          6           0        1.418303    1.054023    0.119274
     24          6           0        2.317514    2.070165    0.231662
     25          1           0        6.249707    0.915403    0.125764
     26          1           0        7.038392   -1.431071   -0.122547
     27          1           0        5.377708   -3.269904   -0.328515
     28          1           0        2.956171   -2.763119   -0.285775
     29          1           0       -1.119531   -2.979384   -0.333098
     30          1           0       -3.486407   -2.404391   -0.267468
     31          1           0       -4.295344    1.922496    0.963028
     32          1           0       -5.934565    1.375265    0.732063
     33          1           0       -4.119878    2.399773   -1.532966
     34          1           0       -5.449029    3.291256   -0.775556
     35          1           0       -5.787568    1.842137   -1.732602
     36          1           0       -5.237909   -1.645970   -0.970139
     37          1           0       -6.411630   -0.394866   -0.663638
     38          1           0       -5.186713   -2.190376    1.514675
     39          1           0       -6.817002   -2.332127    0.838247
     40          1           0       -6.377694   -0.912258    1.797973
     41          1           0       -2.411469    1.788462    0.168138
     42          1           0        1.975897    3.092188    0.340464
 ---------------------------------------------------------------------

 SCF Done:  E(RCAM-B3LYP) =  -1032.50896769     A.U. after   21 cycles

 Excitation energies and oscillator strengths:

 Excited State   1:      Triplet-A      1.2361 eV 1003.06 nm  f=0.0000  <S**2>=2.000
      82 -> 85         0.10362
      83 -> 85        -0.15921
      84 -> 85         0.68349
      84 <- 85         0.19666
 This state for optimization and/or second-order correction.
 Total Energy, E(TD-HF/TD-DFT) =  -1032.46354312
 Copying the excited state density for this state as the 1-particle RhoCI density.

 Excited State   2:      Singlet-A      2.6244 eV  472.43 nm  f=1.0745  <S**2>=0.000
      84 -> 85         0.69488

 Excited State   3:      Triplet-A      2.6429 eV  469.12 nm  f=0.0000  <S**2>=2.000
      77 -> 85        -0.10718
      79 -> 85        -0.10737
      82 -> 85         0.12236
      83 -> 85         0.56331
      84 -> 85         0.10549
      84 -> 86         0.22628

 Excited State   4:      Triplet-A      3.1641 eV  391.85 nm  f=0.0000  <S**2>=2.000
      81 -> 85         0.24852
      81 -> 86        -0.24817
      81 -> 88        -0.12195
      81 -> 89         0.10737
      82 -> 85         0.42358
      82 -> 86         0.15374
      84 -> 85        -0.13224

 Excited State   5:      Singlet-A      3.6247 eV  342.06 nm  f=0.0053  <S**2>=0.000
      82 -> 85         0.19464
      83 -> 85         0.65764

 Excited State   6:      Singlet-A      3.7509 eV  330.54 nm  f=0.0000  <S**2>=0.000
      80 -> 85         0.63536
      80 -> 86        -0.24348

 The electronic state is 1-A.
 Alpha  occ. eigenvalues --  -19.30975 -19.20187 -14.44142 -14.44005 -10.36441
 Alpha  occ. eigenvalues --  -10.35208 -10.35205 -10.33285 -10.32743 -10.30380
 Alpha  occ. eigenvalues --  -10.29665 -10.29660 -10.29176 -10.28236 -10.28176
 Alpha  occ. eigenvalues --  -10.27645 -10.27438 -10.27418 -10.27371 -10.27092
 Alpha  occ. eigenvalues --  -10.26998 -10.26582 -10.25267 -10.25257  -1.21762
 Alpha  occ. eigenvalues --   -1.11346  -1.05451  -1.05113  -0.97302  -0.95004
 Alpha  occ. eigenvalues --   -0.91250  -0.87192  -0.86133  -0.85743  -0.84495
 Alpha  occ. eigenvalues --   -0.83303  -0.80653  -0.76629  -0.75453  -0.73183
 Alpha  occ. eigenvalues --   -0.72155  -0.70821  -0.69765  -0.67488  -0.65059
 Alpha  occ. eigenvalues --   -0.63405  -0.61874  -0.60258  -0.59279  -0.57589
 Alpha  occ. eigenvalues --   -0.56526  -0.56122  -0.54528  -0.53685  -0.53065
 Alpha  occ. eigenvalues --   -0.52172  -0.50966  -0.50753  -0.50572  -0.49932
 Alpha  occ. eigenvalues --   -0.49654  -0.49383  -0.49062  -0.48033  -0.47475
 Alpha  occ. eigenvalues --   -0.46969  -0.46014  -0.45118  -0.44529  -0.44475
 Alpha  occ. eigenvalues --   -0.43333  -0.43212  -0.42666  -0.41955  -0.41844
 Alpha  occ. eigenvalues --   -0.40972  -0.38282  -0.35192  -0.33893  -0.32733
 Alpha  occ. eigenvalues --   -0.32311  -0.31929  -0.29609  -0.24383
 Alpha virt. eigenvalues --   -0.07142  -0.00791   0.01153   0.01617   0.01676
 Alpha virt. eigenvalues --    0.01992   0.02302   0.02584   0.02817   0.02978
 Alpha virt. eigenvalues --    0.03871   0.04022   0.04161   0.04599   0.04810

 Mulliken charges:
               1
     1  O   -0.730147
     2  C   -0.873021
     3  C    2.061061
     4  C    0.432788
     5  C    0.338236
     6  C   -0.219835
     7  C    1.155728
     8  C    1.546030
     9  C   -0.284534
    10  N   -0.162770
    11  C    0.349093
    12  C    0.405907
    13  C    1.834462
    14  C    0.523686
    15  N   -0.111314
    16  C    0.862640
    17  C    1.259072
    18  C    0.958019
    19  C    1.236230
    20  C    1.741877
    21  C   -0.026853
    22  O   -0.513798
    23  C    0.068893
    24  C    0.933606
    25  H   -1.024855
    26  H   -0.755468
    27  H   -0.789065
    28  H   -1.095589
    29  H   -0.901537
    30  H   -1.516012
    31  H   -0.423933
    32  H   -0.598218
    33  H   -0.340189
    34  H   -0.321397
    35  H   -0.343763
    36  H   -0.430206
    37  H   -0.605512
    38  H   -0.331917
    39  H   -0.325519
    40  H   -0.338820
    41  H   -1.627983
    42  H   -1.015074
 Sum of Mulliken charges =  -0.00000

 Dipole moment (field-independent basis, Debye):
    X=            -13.0117    Y=             -4.6046    Z=             -0.5422  Tot=             13.8131
 Quadrupole moment (field-independent basis, Debye-Ang):
   XX=           -117.5723   YY=           -145.0405   ZZ=           -145.6900
   XY=            -27.4816   XZ=             -2.7666   YZ=              0.1184

 Normal termination of Gaussian 16 at Thu Dec 14 22:41:31 2023.
