 Gaussian 16, Revision C.01,

 ----------------------------------------------------------------------
 #p opt freq b3lyp/6-311++g(d,p) scrf=(smd,solvent=water) geom=connecti
 vity int=(ultrafine,acc2e=12)
 ----------------------------------------------------------------------

 --------------------
 GS opt freq in water
 --------------------
 Symbolic Z-matrix:
 Charge =  0 Multiplicity = 1

 SCF Done:  E(RB3LYP) =  -1032.56386201     A.U. after   18 cycles
 SCF Done:  E(RB3LYP) =  -1032.64497775     A.U. after   16 cycles
 SCF Done:  E(RB3LYP) =  -1032.71164700     A.U. after   16 cycles
 SCF Done:  E(RB3LYP) =  -1032.78751645     A.U. after   16 cycles
 SCF Done:  E(RB3LYP) =  -1032.85253972     A.U. after   15 cycles
 SCF Done:  E(RB3LYP) =  -1032.67202946     A.U. after   17 cycles
 SCF Done:  E(RB3LYP) =  -1032.92571353     A.U. after   15 cycles
 SCF Done:  E(RB3LYP) =  -1032.99774711     A.U. after   14 cycles
 SCF Done:  E(RB3LYP) =  -1033.10174001     A.U. after   14 cycles
 SCF Done:  E(RB3LYP) =  -1033.15345312     A.U. after   13 cycles
 SCF Done:  E(RB3LYP) =  -1033.20984522     A.U. after    9 cycles
 SCF Done:  E(RB3LYP) =  -1033.20985084     A.U. after   10 cycles
 SCF Done:  E(RB3LYP) =  -1033.20985258     A.U. after    9 cycles
 SCF Done:  E(RB3LYP) =  -1033.20985300     A.U. after    9 cycles
 SCF Done:  E(RB3LYP) =  -1033.20985340     A.U. after    8 cycles
 SCF Done:  E(RB3LYP) =  -1033.20985369     A.U. after    8 cycles
 SCF Done:  E(RB3LYP) =  -1033.20985386     A.U. after    7 cycles
 SCF Done:  E(RB3LYP) =  -1033.20985396     A.U. after    7 cycles
 Optimization completed.
    -- Stationary point found.
 Normal termination of Gaussian 16 at Tue Feb 27 19:25:48 2024.

 ----------------------------------------------------------------------
 #P Geom=AllCheck Guess=TCheck SCRF=Check GenChk RB3LYP/6-311++G(d,p) F
 req
 ----------------------------------------------------------------------

 Structure from the checkpoint file:  "wat-1.chk"
 --------------------
 GS opt freq in water
 --------------------
 Charge =  0 Multiplicity = 1

 SCF Done:  E(RB3LYP) =  -1033.20985396     A.U. after    1 cycles

  Exact polarizability:    1113.299    -101.264     448.859      13.471     -22.142     217.846
 Approx polarizability:    1093.487    -122.125     489.069      16.025     -27.332     227.862

                      1                      2                      3
                      A                      A                      A
 Frequencies --     27.3476                35.4371                67.2332
 Red. masses --      4.5791                 4.4112                 4.4825
 Frc consts  --      0.0020                 0.0033                 0.0119
 IR Inten    --      3.1299                 0.7954                 1.8301

                      4                      5                      6
                      A                      A                      A
 Frequencies --     72.4683                82.6165                97.2126
 Red. masses --      3.6110                 4.2379                 3.2520
 Frc consts  --      0.0112                 0.0170                 0.0181
 IR Inten    --      0.5659                 0.2015                 1.4240

                      7                      8                      9
                      A                      A                      A
 Frequencies --    115.5617               130.0897               154.5665
 Red. masses --      4.3457                 3.3824                 5.4019
 Frc consts  --      0.0342                 0.0337                 0.0760
 IR Inten    --      3.3939                 4.7206                 0.2061

                     10                     11                     12
                      A                      A                      A
 Frequencies --    178.4304               194.0763               216.5882
 Red. masses --      5.1190                 2.3222                 3.7872
 Frc consts  --      0.0960                 0.0515                 0.1047
 IR Inten    --      9.3101                 3.9932                 3.8972

                     13                     14                     15
                      A                      A                      A
 Frequencies --    225.5736               233.0248               265.3316
 Red. masses --      1.1247                 1.5164                 5.9255
 Frc consts  --      0.0337                 0.0485                 0.2458
 IR Inten    --      3.8075                 4.5211                 2.0808

                     16                     17                     18
                      A                      A                      A
 Frequencies --    285.5655               310.2479               336.4953
 Red. masses --      3.1952                 4.5475                 3.6240
 Frc consts  --      0.1535                 0.2579                 0.2418
 IR Inten    --      9.8068                15.8692                 6.5487

                     19                     20                     21
                      A                      A                      A
 Frequencies --    353.3132               364.6978               411.3696
 Red. masses --      5.0365                 5.3598                 4.5212
 Frc consts  --      0.3704                 0.4200                 0.4508
 IR Inten    --      8.8125                67.5863                80.4418

                     22                     23                     24
                      A                      A                      A
 Frequencies --    425.4790               434.6848               442.9984
 Red. masses --      3.4824                 3.6357                 5.9148
 Frc consts  --      0.3714                 0.4048                 0.6839
 IR Inten    --    100.7622                 6.4567                 5.6096

                     25                     26                     27
                      A                      A                      A
 Frequencies --    461.5472               483.8953               500.1135
 Red. masses --      3.3580                 6.1773                 5.5440
 Frc consts  --      0.4215                 0.8522                 0.8170
 IR Inten    --     16.8704               117.3255                38.1748

                     28                     29                     30
                      A                      A                      A
 Frequencies --    524.4960               528.9153               557.1053
 Red. masses --      3.7278                 3.1391                 3.4255
 Frc consts  --      0.6042                 0.5174                 0.6264
 IR Inten    --      7.3564                55.3761                28.7669

                     31                     32                     33
                      A                      A                      A
 Frequencies --    600.0089               602.3230               630.1228
 Red. masses --      6.3565                 9.6433                 4.1132
 Frc consts  --      1.3483                 2.0613                 0.9622
 IR Inten    --     17.4134                17.1298                10.3464

                     34                     35                     36
                      A                      A                      A
 Frequencies --    649.6984               670.5130               674.5097
 Red. masses --      6.0001                 6.3487                 3.3353
 Frc consts  --      1.4922                 1.6817                 0.8941
 IR Inten    --     45.9920                72.1336                 9.2208

                     37                     38                     39
                      A                      A                      A
 Frequencies --    694.6248               721.8031               740.9572
 Red. masses --      3.7693                 5.3668                 3.5978
 Frc consts  --      1.0715                 1.6474                 1.1638
 IR Inten    --      9.6805                61.8903                17.8885

                     40                     41                     42
                      A                      A                      A
 Frequencies --    756.2003               763.3968               789.3622
 Red. masses --      6.0010                 3.9412                 1.5447
 Frc consts  --      2.0218                 1.3532                 0.5671
 IR Inten    --     16.0750                12.7827               111.1595

                     43                     44                     45
                      A                      A                      A
 Frequencies --    789.9597               795.7441               811.2664
 Red. masses --      1.4070                 1.1822                 2.9785
 Frc consts  --      0.5173                 0.4410                 1.1550
 IR Inten    --     19.7947                18.4522                22.8207

                     46                     47                     48
                      A                      A                      A
 Frequencies --    813.4559               834.5357               840.6674
 Red. masses --      1.6034                 1.6149                 1.6438
 Frc consts  --      0.6251                 0.6627                 0.6845
 IR Inten    --     41.9019                88.0986                69.5694

                     49                     50                     51
                      A                      A                      A
 Frequencies --    870.2352               891.9282               892.9227
 Red. masses --      4.9720                 3.1293                 1.3877
 Frc consts  --      2.2185                 1.4668                 0.6519
 IR Inten    --    152.0357                17.5475                 0.0163

                     52                     53                     54
                      A                      A                      A
 Frequencies --    934.1243               954.2516               970.4867
 Red. masses --      2.1728                 3.0109                 1.2892
 Frc consts  --      1.1171                 1.6154                 0.7154
 IR Inten    --      6.1055                90.2988                 2.5247

                     55                     56                     57
                      A                      A                      A
 Frequencies --    989.8746              1007.9986              1012.6708
 Red. masses --      1.3740                 3.9382                 1.3109
 Frc consts  --      0.7932                 2.3576                 0.7920
 IR Inten    --      1.9872                72.6196                 0.0045

                     58                     59                     60
                      A                      A                      A
 Frequencies --   1022.3470              1054.4170              1082.4219
 Red. masses --      3.0597                 2.0528                 2.1969
 Frc consts  --      1.8842                 1.3447                 1.5165
 IR Inten    --    663.1057                10.5074                30.3690

                     61                     62                     63
                      A                      A                      A
 Frequencies --   1090.4658              1099.3782              1108.5323
 Red. masses --      1.8414                 2.8360                 1.7892
 Frc consts  --      1.2901                 2.0196                 1.2954
 IR Inten    --    302.8668               158.5355                25.9258

                     64                     65                     66
                      A                      A                      A
 Frequencies --   1124.7841              1145.4732              1155.0703
 Red. masses --      2.4442                 1.9505                 1.9287
 Frc consts  --      1.8219                 1.5079                 1.5162
 IR Inten    --   1499.9482               178.3794               165.2372

                     67                     68                     69
                      A                      A                      A
 Frequencies --   1170.5591              1177.7496              1191.2017
 Red. masses --      1.4586                 1.5985                 2.1835
 Frc consts  --      1.1775                 1.3064                 1.8255
 IR Inten    --    175.2916               136.1867               770.7353

                     70                     71                     72
                      A                      A                      A
 Frequencies --   1208.3724              1232.3936              1269.9714
 Red. masses --      2.2877                 1.7455                 1.6819
 Frc consts  --      1.9681                 1.5619                 1.5982
 IR Inten    --     82.2290               226.6576              1399.3253

                     73                     74                     75
                      A                      A                      A
 Frequencies --   1293.7741              1303.7716              1316.3608
 Red. masses --      1.9097                 1.8605                 1.3936
 Frc consts  --      1.8833                 1.8633                 1.4227
 IR Inten    --   2038.9125               357.5411               178.6408

                     76                     77                     78
                      A                      A                      A
 Frequencies --   1324.9696              1337.6651              1357.1349
 Red. masses --      2.9052                 5.2555                 2.7658
 Frc consts  --      3.0050                 5.5407                 3.0014
 IR Inten    --    479.5196               367.7181              1410.8265

                     79                     80                     81
                      A                      A                      A
 Frequencies --   1368.8629              1380.8133              1384.3122
 Red. masses --      3.0360                 1.4110                 1.5925
 Frc consts  --      3.3517                 1.5851                 1.7981
 IR Inten    --     45.3996               328.2138               856.3093

                     82                     83                     84
                      A                      A                      A
 Frequencies --   1398.6770              1399.0655              1403.6610
 Red. masses --      1.2644                 1.2657                 2.2234
 Frc consts  --      1.4574                 1.4596                 2.5810
 IR Inten    --      8.5042                18.4064               907.1793

                     85                     86                     87
                      A                      A                      A
 Frequencies --   1437.6000              1458.1554              1473.8385
 Red. masses --      2.6555                 2.9838                 1.0439
 Frc consts  --      3.2334                 3.7379                 1.3360
 IR Inten    --   2396.6082               887.5011                16.7375

                     88                     89                     90
                      A                      A                      A
 Frequencies --   1475.1031              1476.1827              1480.1101
 Red. masses --      1.0440                 1.0770                 1.1151
 Frc consts  --      1.3384                 1.3828                 1.4392
 IR Inten    --      5.1519                51.2276                 5.2173

                     91                     92                     93
                      A                      A                      A
 Frequencies --   1483.1263              1492.6782              1501.3804
 Red. masses --      2.6119                 3.3838                 1.5704
 Frc consts  --      3.3851                 4.4421                 2.0856
 IR Inten    --    133.8499                60.0349               437.3442

                     94                     95                     96
                      A                      A                      A
 Frequencies --   1513.2492              1514.4801              1544.4543
 Red. masses --      1.9546                 1.3919                 3.6960
 Frc consts  --      2.6372                 1.8809                 5.1944
 IR Inten    --    646.9565                61.2807               493.8356

                     97                     98                     99
                      A                      A                      A
 Frequencies --   1549.7261              1559.6595              1577.3575
 Red. masses --      4.7081                 6.0757                 6.0243
 Frc consts  --      6.6621                 8.7077                 8.8311
 IR Inten    --     61.9566                50.1620               992.1867

                    100                    101                    102
                      A                      A                      A
 Frequencies --   1603.9276              1639.4871              1669.2568
 Red. masses --      6.5585                 6.3413                 7.9364
 Frc consts  --      9.9408                10.0425                13.0293
 IR Inten    --   1651.4779                55.2248               380.5992

                    103                    104                    105
                      A                      A                      A
 Frequencies --   3030.4528              3030.9734              3061.4879
 Red. masses --      1.0348                 1.0348                 1.0621
 Frc consts  --      5.5992                 5.6011                 5.8653
 IR Inten    --     46.7029                40.7763                50.0445

                    106                    107                    108
                      A                      A                      A
 Frequencies --   3067.7914              3090.2745              3091.5691
 Red. masses --      1.0634                 1.1029                 1.1028
 Frc consts  --      5.8967                 6.2056                 6.2100
 IR Inten    --     90.7059                 8.3843                 6.0276

                    109                    110                    111
                      A                      A                      A
 Frequencies --   3098.2266              3098.5809              3111.1871
 Red. masses --      1.1008                 1.1001                 1.1059
 Frc consts  --      6.2256                 6.2229                 6.3071
 IR Inten    --     73.1810                98.5677                49.6969

                    112                    113                    114
                      A                      A                      A
 Frequencies --   3114.3017              3176.9814              3189.2211
 Red. masses --      1.1061                 1.0875                 1.0914
 Frc consts  --      6.3205                 6.4672                 6.5407
 IR Inten    --     56.6446                 3.4428                14.0776

                    115                    116                    117
                      A                      A                      A
 Frequencies --   3191.1635              3196.6066              3201.9953
 Red. masses --      1.0912                 1.0924                 1.0941
 Frc consts  --      6.5469                 6.5765                 6.6092
 IR Inten    --      7.8366                 1.3853                21.0724

                    118                    119                    120
                      A                      A                      A
 Frequencies --   3210.0919              3227.1494              3229.4959
 Red. masses --      1.0937                 1.0909                 1.0921
 Frc consts  --      6.6400                 6.6936                 6.7110
 IR Inten    --     10.1131                 2.0273                 8.5657

 - Thermochemistry -
 -------------------
 Temperature   298.150 Kelvin.  Pressure   1.00000 Atm.
 Atom     1 has atomic number  8 and mass  15.99491

 Molecular mass:   318.13683 amu.
 Principal axes and moments of inertia in atomic units:
                           1         2         3
     Eigenvalues --  2762.52658********************
           X            0.99998   0.00672  -0.00089
           Y           -0.00672   0.99994   0.00882
           Z            0.00095  -0.00881   0.99996
 This molecule is an asymmetric top.
 Rotational symmetry number  1.
 Warning -- assumption of classical behavior for rotation
           may cause significant error
 Rotational temperatures (Kelvin)      0.03135     0.00510     0.00446
 Rotational constants (GHZ):           0.65329     0.10621     0.09292
 Zero-point vibrational energy     882184.0 (Joules/Mol)
                                  210.84705 (Kcal/Mol)
 Warning -- explicit consideration of  32 degrees of freedom as
           vibrations may cause significant error
 Vibrational temperatures:     39.35    50.99    96.73   104.27   118.87
          (Kelvin)            139.87   166.27   187.17   222.39   256.72
                              279.23   311.62   324.55   335.27   381.75
                              410.87   446.38   484.14   508.34   524.72
                              591.87   612.17   625.41   637.38   664.06
                              696.22   719.55   754.63   760.99   801.55
                              863.28   866.61   906.61   934.77   964.72
                              970.47   999.41  1038.51  1066.07  1088.00
                             1098.36  1135.72  1136.58  1144.90  1167.23
                             1170.38  1200.71  1209.53  1252.07  1283.29
                             1284.72  1344.00  1372.96  1396.31  1424.21
                             1450.29  1457.01  1470.93  1517.07  1557.36
                             1568.94  1581.76  1594.93  1618.31  1648.08
                             1661.89  1684.17  1694.52  1713.87  1738.58
                             1773.14  1827.21  1861.45  1875.84  1893.95
                             1906.34  1924.60  1952.61  1969.49  1986.68
                             1991.72  2012.38  2012.94  2019.56  2068.39
                             2097.96  2120.52  2122.34  2123.90  2129.55
                             2133.89  2147.63  2160.15  2177.23  2179.00
                             2222.13  2229.71  2244.00  2269.47  2307.69
                             2358.86  2401.69  4360.15  4360.89  4404.80
                             4413.87  4446.22  4448.08  4457.66  4458.17
                             4476.30  4480.79  4570.97  4588.58  4591.37
                             4599.20  4606.96  4618.61  4643.15  4646.52

 Zero-point correction=                           0.336006 (Hartree/Particle)
 Thermal correction to Energy=                    0.356071
 Thermal correction to Enthalpy=                  0.357015
 Thermal correction to Gibbs Free Energy=         0.287072
 Sum of electronic and zero-point Energies=          -1032.873848
 Sum of electronic and thermal Energies=             -1032.853783
 Sum of electronic and thermal Enthalpies=           -1032.852839
 Sum of electronic and thermal Free Energies=        -1032.922782

                     E (Thermal)             CV                S
                      KCal/Mol        Cal/Mol-Kelvin    Cal/Mol-Kelvin
 Total                  223.438             79.935            147.207
 Electronic               0.000              0.000              0.000
 Translational            0.889              2.981             43.168
 Rotational               0.889              2.981             35.165
 Vibrational            221.660             73.973             68.874
 Vibration     1          0.593              1.984              6.013
 Vibration     2          0.594              1.982              5.499
 Vibration     3          0.598              1.970              4.233
 Vibration     4          0.599              1.967              4.085
 Vibration     5          0.600              1.961              3.828
 Vibration     6          0.603              1.951              3.509
 Vibration     7          0.608              1.936              3.173
 Vibration     8          0.612              1.923              2.945
 Vibration     9          0.620              1.898              2.615
 Vibration    10          0.629              1.869              2.345
 Vibration    11          0.635              1.848              2.189
 Vibration    12          0.645              1.816              1.987
 Vibration    13          0.650              1.802              1.914
 Vibration    14          0.654              1.790              1.856
 Vibration    15          0.671              1.737              1.626
 Vibration    16          0.683              1.700              1.500
 Vibration    17          0.699              1.654              1.361
 Vibration    18          0.717              1.603              1.229
 Vibration    19          0.730              1.568              1.151
 Vibration    20          0.738              1.545              1.102
 Vibration    21          0.775              1.446              0.922
 Vibration    22          0.787              1.415              0.874
 Vibration    23          0.795              1.395              0.843
 Vibration    24          0.803              1.376              0.817
 Vibration    25          0.819              1.335              0.762
 Vibration    26          0.840              1.286              0.700
 Vibration    27          0.856              1.250              0.658
 Vibration    28          0.879              1.196              0.600
 Vibration    29          0.884              1.186              0.590
 Vibration    30          0.913              1.124              0.530
 Vibration    31          0.958              1.032              0.450
 Vibration    32          0.961              1.027              0.446

 Optimization completed.
    -- Stationary point found.
 Normal termination of Gaussian 16 at Tue Feb 27 20:16:05 2024.
 Gaussian 16:  ES64L-G16RevC.01  3-Jul-2019

 ----------------------------------------------------------------------
 #p td(nstates=6) cam-b3lyp/aug-cc-pvdz int=(ultrafine,acc2e=12) scrf=(
 smd,solvent=water) geom=allcheck guess=read
 ----------------------------------------------------------------------

 Structure from the checkpoint file:  "wat-3.chk"
 --------------------
 GS opt freq in water
 --------------------
 Charge =  0 Multiplicity = 1

                         Standard orientation:
 ---------------------------------------------------------------------
 Center     Atomic      Atomic             Coordinates (Angstroms)
 Number     Number       Type             X           Y           Z
 ---------------------------------------------------------------------
      1          8           0       -4.570034    2.745871   -0.284294
      2          6           0       -3.733858    1.813291   -0.194220
      3          6           0       -4.173724    0.403184   -0.057420
      4          6           0       -5.544924    0.103227   -0.030042
      5          6           0       -5.981889   -1.205430    0.099510
      6          6           0       -5.046347   -2.243909    0.205194
      7          6           0       -3.688824   -1.967961    0.180045
      8          6           0       -3.228635   -0.644952    0.048756
      9          6           0       -1.800583   -0.339303    0.022569
     10          7           0       -0.900520   -1.295003    0.127869
     11          6           0        0.414671   -0.966608    0.101799
     12          6           0        1.424835   -1.949576    0.220669
     13          6           0        2.754109   -1.616621    0.194254
     14          6           0        3.180385   -0.254312    0.042261
     15          7           0        4.498305    0.069970    0.009928
     16          6           0        4.960177    1.439992   -0.261652
     17          6           0        5.094697    2.304466    0.991885
     18          6           0        5.561384   -0.920433    0.245986
     19          6           0        6.038760   -1.624877   -1.023426
     20          6           0        2.172531    0.740035   -0.076362
     21          6           0        0.848657    0.372599   -0.044370
     22          8           0       -0.095962    1.364690   -0.150223
     23          6           0       -1.424433    1.047443   -0.115907
     24          6           0       -2.323890    2.068479   -0.219080
     25          1           0       -6.258291    0.913619   -0.112102
     26          1           0       -7.043043   -1.425328    0.119442
     27          1           0       -5.384164   -3.268976    0.307307
     28          1           0       -2.969821   -2.772244    0.262223
     29          1           0        1.123253   -2.985169    0.327798
     30          1           0        3.487362   -2.405457    0.271883
     31          1           0        4.290332    1.909104   -0.983520
     32          1           0        5.929798    1.352094   -0.755513
     33          1           0        4.132896    2.434166    1.493943
     34          1           0        5.471835    3.293150    0.715391
     35          1           0        5.797641    1.859296    1.701017
     36          1           0        5.221036   -1.645904    0.985068
     37          1           0        6.392961   -0.382571    0.705449
     38          1           0        5.233042   -2.198375   -1.488244
     39          1           0        6.851253   -2.314066   -0.776202
     40          1           0        6.416022   -0.904361   -1.754020
     41          1           0        2.411719    1.789066   -0.169904
     42          1           0       -1.978957    3.090303   -0.321134
 ---------------------------------------------------------------------

 SCF Done:  E(RCAM-B3LYP) =  -1032.51217224     A.U. after   16 cycles

 Excitation energies and oscillator strengths:

 Excited State   1:      Singlet-A      2.5007 eV  495.80 nm  f=1.1212  <S**2>=0.000
      84 -> 85         0.69636
 This state for optimization and/or second-order correction.
 Total Energy, E(TD-HF/TD-DFT) =  -1032.42027269
 Copying the excited state density for this state as the 1-particle RhoCI density.

 Excited State   2:      Singlet-A      3.5301 eV  351.22 nm  f=0.0030  <S**2>=0.000
      82 -> 85        -0.18795
      83 -> 85         0.66444

 Excited State   3:      Singlet-A      3.9155 eV  316.65 nm  f=0.0003  <S**2>=0.000
      78 -> 85         0.28261
      80 -> 85         0.59129
      80 -> 86        -0.19875

 Excited State   4:      Singlet-A      4.0374 eV  307.09 nm  f=0.0010  <S**2>=0.000
      78 -> 85         0.62193
      80 -> 85        -0.24535
      80 -> 86         0.15273

 Excited State   5:      Singlet-A      4.1965 eV  295.45 nm  f=0.0524  <S**2>=0.000
      81 -> 85         0.18548
      83 -> 85         0.12499
      84 -> 86         0.60659
      84 -> 88        -0.12549

 Excited State   6:      Singlet-A      4.3163 eV  287.24 nm  f=0.0004  <S**2>=0.000
      79 -> 85        -0.32233
      81 -> 85        -0.10177
      82 -> 85         0.53961
      83 -> 85         0.14252
      83 -> 86         0.10213
      84 -> 88        -0.10484

 The electronic state is 1-A.
 Alpha  occ. eigenvalues --  -19.30639 -19.20032 -14.43909 -14.43427 -10.36058
 Alpha  occ. eigenvalues --  -10.35019 -10.34763 -10.32732 -10.32074 -10.30006
 Alpha  occ. eigenvalues --  -10.28754 -10.28477 -10.28471 -10.27761 -10.27612
 Alpha  occ. eigenvalues --  -10.27002 -10.26886 -10.26823 -10.26732 -10.26446
 Alpha  occ. eigenvalues --  -10.26267 -10.25977 -10.24196 -10.24188  -1.21125
 Alpha  occ. eigenvalues --   -1.10852  -1.04873  -1.04524  -0.96831  -0.94439
 Alpha  occ. eigenvalues --   -0.90753  -0.86565  -0.85486  -0.84904  -0.83856
 Alpha  occ. eigenvalues --   -0.82738  -0.79990  -0.76125  -0.74890  -0.72422
 Alpha  occ. eigenvalues --   -0.71348  -0.70174  -0.69081  -0.66804  -0.64595
 Alpha  occ. eigenvalues --   -0.62716  -0.61358  -0.59546  -0.58432  -0.56856
 Alpha  occ. eigenvalues --   -0.55966  -0.55505  -0.53735  -0.53322  -0.52176
 Alpha  occ. eigenvalues --   -0.51471  -0.50277  -0.49960  -0.49902  -0.49493
 Alpha  occ. eigenvalues --   -0.49129  -0.48699  -0.48423  -0.47474  -0.46915
 Alpha  occ. eigenvalues --   -0.46538  -0.45002  -0.44352  -0.43953  -0.43410
 Alpha  occ. eigenvalues --   -0.42737  -0.42609  -0.41725  -0.41234  -0.40755
 Alpha  occ. eigenvalues --   -0.39909  -0.37713  -0.34888  -0.33405  -0.33020
 Alpha  occ. eigenvalues --   -0.31953  -0.31418  -0.29139  -0.23763
 Alpha virt. eigenvalues --   -0.06987  -0.00425   0.01640   0.02094   0.02152
 Alpha virt. eigenvalues --    0.02508   0.02855   0.03059   0.03367   0.03444
 Alpha virt. eigenvalues --    0.04341   0.04490   0.04628   0.05109   0.05300

 Mulliken charges:
               1
     1  O   -0.777873
     2  C   -0.840606
     3  C    2.115779
     4  C    0.486327
     5  C    0.325783
     6  C   -0.223497
     7  C    1.195545
     8  C    1.494484
     9  C   -0.246016
    10  N   -0.172069
    11  C    0.348029
    12  C    0.434862
    13  C    1.804852
    14  C    0.568715
    15  N   -0.131165
    16  C    0.879114
    17  C    1.241129
    18  C    0.970812
    19  C    1.220733
    20  C    1.687278
    21  C    0.017085
    22  O   -0.534472
    23  C    0.042436
    24  C    0.917878
    25  H   -1.039389
    26  H   -0.769396
    27  H   -0.805233
    28  H   -1.116652
    29  H   -0.919529
    30  H   -1.518327
    31  H   -0.411725
    32  H   -0.585651
    33  H   -0.334168
    34  H   -0.320505
    35  H   -0.343582
    36  H   -0.418238
    37  H   -0.588931
    38  H   -0.325071
    39  H   -0.325846
    40  H   -0.338870
    41  H   -1.633744
    42  H   -1.030284
 Sum of Mulliken charges =  -0.00000

 Dipole moment (field-independent basis, Debye):
    X=             15.3535    Y=             -5.6249    Z=              0.6137  Tot=             16.3630
 Quadrupole moment (field-independent basis, Debye-Ang):
   XX=           -118.3012   YY=           -146.3690   ZZ=           -145.9567
   XY=             32.2854   XZ=             -2.8635   YZ=             -0.4276

 Normal termination of Gaussian 16 at Tue Feb 27 21:36:50 2024.
