 Gaussian 16, Revision C.01,

 ----------------------------------------------------------------------
 #p cam-b3lyp/aug-cc-pvdz scrf=(solvent=water,read) int=(ultrafine,acc2
 e=12) guess=read geom=check
 ----------------------------------------------------------------------

 water: prepare for state-specific non-eq solvation by saving the solve
 nt reaction field from the ground state
 ----------------------------------------------------------------------
 Structure from the checkpoint file:  "wat-2.chk"
 Charge =  0 Multiplicity = 1

 SCF Done:  E(RCAM-B3LYP) =  -1032.50816207     A.U. after   16 cycles
 Normal termination of Gaussian 16 at Wed Feb 28 10:16:11 2024.
 Gaussian 16:  ES64L-G16RevC.01  3-Jul-2019

 ----------------------------------------------------------------------
 #p cam-b3lyp/aug-cc-pvdz TD(NStates=6,Root=1) SCRF=(Solvent=water,Exte
 rnalIteration,Read) Geom=Check Guess=Read Int=(Ultrafine,Acc2E=12)
 ----------------------------------------------------------------------

 y of the first excited with the EI method and non-equilibrium solvatio
 n
 ----------------------------------------------------------------------
 Structure from the checkpoint file:  "wat-2.chk"
 Charge =  0 Multiplicity = 1

                         Standard orientation:
 ---------------------------------------------------------------------
 Center     Atomic      Atomic             Coordinates (Angstroms)
 Number     Number       Type             X           Y           Z
 ---------------------------------------------------------------------
      1          8           0       -4.570034    2.745871   -0.284294
      2          6           0       -3.733858    1.813291   -0.194220
      3          6           0       -4.173724    0.403184   -0.057420
      4          6           0       -5.544924    0.103227   -0.030042
      5          6           0       -5.981889   -1.205430    0.099510
      6          6           0       -5.046347   -2.243909    0.205194
      7          6           0       -3.688824   -1.967961    0.180045
      8          6           0       -3.228635   -0.644952    0.048756
      9          6           0       -1.800583   -0.339303    0.022569
     10          7           0       -0.900520   -1.295003    0.127869
     11          6           0        0.414671   -0.966608    0.101799
     12          6           0        1.424835   -1.949576    0.220669
     13          6           0        2.754109   -1.616621    0.194254
     14          6           0        3.180385   -0.254312    0.042261
     15          7           0        4.498305    0.069970    0.009928
     16          6           0        4.960177    1.439992   -0.261652
     17          6           0        5.094697    2.304466    0.991885
     18          6           0        5.561384   -0.920433    0.245986
     19          6           0        6.038760   -1.624877   -1.023426
     20          6           0        2.172531    0.740035   -0.076362
     21          6           0        0.848657    0.372599   -0.044370
     22          8           0       -0.095962    1.364690   -0.150223
     23          6           0       -1.424433    1.047443   -0.115907
     24          6           0       -2.323890    2.068479   -0.219080
     25          1           0       -6.258291    0.913619   -0.112102
     26          1           0       -7.043043   -1.425328    0.119442
     27          1           0       -5.384164   -3.268976    0.307307
     28          1           0       -2.969821   -2.772244    0.262223
     29          1           0        1.123253   -2.985169    0.327798
     30          1           0        3.487362   -2.405457    0.271883
     31          1           0        4.290332    1.909104   -0.983520
     32          1           0        5.929798    1.352094   -0.755513
     33          1           0        4.132896    2.434166    1.493943
     34          1           0        5.471835    3.293150    0.715391
     35          1           0        5.797641    1.859296    1.701017
     36          1           0        5.221036   -1.645904    0.985068
     37          1           0        6.392961   -0.382571    0.705449
     38          1           0        5.233042   -2.198375   -1.488244
     39          1           0        6.851253   -2.314066   -0.776202
     40          1           0        6.416022   -0.904361   -1.754020
     41          1           0        2.411719    1.789066   -0.169904
     42          1           0       -1.978957    3.090303   -0.321134
 ---------------------------------------------------------------------

 SCF Done:  E(RCAM-B3LYP) =  -1032.50816208     A.U. after    3 cycles
 Total Energy, E(TD-HF/TD-DFT) =  -1032.42232469
 SCF Done:  E(RCAM-B3LYP) =  -1032.50949393     A.U. after   14 cycles
 Total Energy, E(TD-HF/TD-DFT) =  -1032.41125666
 SCF Done:  E(RCAM-B3LYP) =  -1032.50908863     A.U. after   12 cycles
 Total Energy, E(TD-HF/TD-DFT) =  -1032.41048880
 SCF Done:  E(RCAM-B3LYP) =  -1032.50902867     A.U. after   10 cycles
 Total Energy, E(TD-HF/TD-DFT) =  -1032.41038088
 SCF Done:  E(RCAM-B3LYP) =  -1032.50901970     A.U. after    8 cycles

 Excitation energies and oscillator strengths:

 Excited State   1:      Singlet-A      2.6845 eV  461.85 nm  f=0.9390  <S**2>=0.000
      84 -> 85         0.69655
 This state for optimization and/or second-order correction.
 Total Energy, E(TD-HF/TD-DFT) =  -1032.41036522
 Copying the excited state density for this state as the 1-particle RhoCI density.

 Excited State   2:      Singlet-A      3.5911 eV  345.25 nm  f=0.0030  <S**2>=0.000
      82 -> 85         0.20027
      83 -> 85         0.66018

 Excited State   3:      Singlet-A      3.7263 eV  332.73 nm  f=0.0000  <S**2>=0.000
      80 -> 85         0.63565
      80 -> 86        -0.24706

 Excited State   4:      Singlet-A      4.0232 eV  308.17 nm  f=0.0011  <S**2>=0.000
      78 -> 85         0.68226

 Excited State   5:      Singlet-A      4.2116 eV  294.38 nm  f=0.0254  <S**2>=0.000
      81 -> 85         0.22851
      82 -> 86         0.10567
      83 -> 85        -0.12428
      84 -> 86         0.59542
      84 -> 88        -0.13054

 Excited State   6:      Singlet-A      4.3781 eV  283.19 nm  f=0.0021  <S**2>=0.000
      79 -> 85         0.42288
      82 -> 85        -0.44502
      83 -> 85         0.12881
      83 -> 86         0.12844
      84 -> 91        -0.18102
      84 -> 93         0.11408

 The electronic state is 1-A.
 Alpha  occ. eigenvalues --  -19.31103 -19.19998 -14.44403 -14.44140 -10.36548
 Alpha  occ. eigenvalues --  -10.35358 -10.35140 -10.33417 -10.32719 -10.30565
 Alpha  occ. eigenvalues --  -10.29529 -10.29526 -10.29372 -10.28341 -10.28332
 Alpha  occ. eigenvalues --  -10.27801 -10.27585 -10.27576 -10.27521 -10.27175
 Alpha  occ. eigenvalues --  -10.27049 -10.26625 -10.25101 -10.25078  -1.21663
 Alpha  occ. eigenvalues --   -1.10641  -1.05547  -1.05215  -0.97441  -0.95096
 Alpha  occ. eigenvalues --   -0.91382  -0.87275  -0.86187  -0.85759  -0.84606
 Alpha  occ. eigenvalues --   -0.83419  -0.80732  -0.76774  -0.75495  -0.73175
 Alpha  occ. eigenvalues --   -0.72142  -0.70894  -0.69828  -0.67551  -0.65153
 Alpha  occ. eigenvalues --   -0.63448  -0.61963  -0.60311  -0.59305  -0.57607
 Alpha  occ. eigenvalues --   -0.56560  -0.56178  -0.54526  -0.53762  -0.53055
 Alpha  occ. eigenvalues --   -0.52276  -0.50940  -0.50797  -0.50700  -0.49919
 Alpha  occ. eigenvalues --   -0.49652  -0.49401  -0.49055  -0.48015  -0.47548
 Alpha  occ. eigenvalues --   -0.47016  -0.45865  -0.45096  -0.44426  -0.44337
 Alpha  occ. eigenvalues --   -0.43368  -0.43302  -0.42594  -0.41969  -0.41755
 Alpha  occ. eigenvalues --   -0.40891  -0.38345  -0.35376  -0.33969  -0.32724
 Alpha  occ. eigenvalues --   -0.32436  -0.32064  -0.29701  -0.24363
 Alpha virt. eigenvalues --   -0.07434  -0.00970   0.01128   0.01476   0.01668
 Alpha virt. eigenvalues --    0.02021   0.02293   0.02603   0.02855   0.03019
 Alpha virt. eigenvalues --    0.03816   0.03998   0.04138   0.04618   0.04932

 Mulliken charges:
               1
     1  O   -0.779522
     2  C   -0.839457
     3  C    2.094617
     4  C    0.464960
     5  C    0.312861
     6  C   -0.230223
     7  C    1.138474
     8  C    1.473922
     9  C   -0.259704
    10  N   -0.204358
    11  C    0.272331
    12  C    0.480876
    13  C    1.794848
    14  C    0.536862
    15  N   -0.090522
    16  C    0.864936
    17  C    1.248209
    18  C    0.958445
    19  C    1.226353
    20  C    1.707723
    21  C    0.034186
    22  O   -0.528014
    23  C    0.115101
    24  C    0.890550
    25  H   -1.024593
    26  H   -0.762114
    27  H   -0.798110
    28  H   -1.104085
    29  H   -0.896564
    30  H   -1.500828
    31  H   -0.413721
    32  H   -0.585272
    33  H   -0.329171
    34  H   -0.309377
    35  H   -0.342178
    36  H   -0.423180
    37  H   -0.588172
    38  H   -0.322353
    39  H   -0.314041
    40  H   -0.337741
    41  H   -1.615290
    42  H   -1.016661
 Sum of Mulliken charges =  -0.00000

 Dipole moment (field-independent basis, Debye):
    X=             17.9162    Y=             -5.0014    Z=              0.5647  Tot=             18.6098
 Quadrupole moment (field-independent basis, Debye-Ang):
   XX=           -112.3046   YY=           -146.6078   ZZ=           -145.5415
   XY=             28.9422   XZ=             -2.6655   YZ=              0.1869

 Normal termination of Gaussian 16 at Wed Feb 28 20:35:37 2024.
